Data File created from VASP POSCAR

32 atoms
1 atom types

0 8.08 xlo xhi
0 8.08 ylo yhi
0 8.08 zlo zhi

Masses

1 26.982

Atoms

1 1 0.0988628306022 8.05204713977 0.12930770762
2 1 6.36447597128 6.01322932506 3.99352260861
3 1 4.3559325631 4.19378694583 3.94610512281
4 1 4.14880200872 5.96752646144 1.92650404929
5 1 6.10879245431 3.65764395107 1.6750364335
6 1 5.94700249415 5.85701377593 0.0628582674491
7 1 3.8586551849 3.75734925973 0.292989753784
8 1 3.9947347399 2.03355564094 5.77453036276
9 1 5.95075345509 0.021874517942 5.83000128452
10 1 6.13458960367 1.89977226202 3.98140125004
11 1 3.91977867755 0.370672113902 4.03718055505
12 1 3.82793781421 2.18412898242 1.77575127001
13 1 6.102052719 7.68788597522 1.75428279022
14 1 6.09932224717 2.168013316 0.034775815238
15 1 4.01720034352 8.01995454788 7.78435068593
16 1 7.93604317092 5.96802224581 6.27180444524
17 1 2.08857365791 3.68712196893 6.12463679388
18 1 1.94350354392 5.92497559994 4.16263525777
19 1 0.206225538299 4.22596602382 3.87262649536
20 1 8.01824485003 6.12577268628 2.21456902542
21 1 1.92392515243 4.00253820467 1.7984630052
22 1 1.78077867518 6.22256516448 0.270918005714
23 1 8.06592995768 4.24096657958 0.0723758253095
24 1 7.95113679008 2.0918991211 6.36768731329
25 1 2.01258479218 0.313342042163 5.53624097918
26 1 2.18473050088 2.03738941365 3.98050852991
27 1 0.0186887233071 7.68265184208 3.99570562243
28 1 0.0719409553023 2.31569880895 1.91648595635
29 1 1.85817127942 7.98013017628 2.20283042354
30 1 2.08523022193 1.91362795925 0.102503486623
31 1 6.07963550987 4.23414899811 5.91989938122
32 1 3.97414757068 5.98159836937 5.76779701037
